LAMMPS Description

     10000  atoms
     9999  bonds
     9998  angles
     0  dihedrals
     0  impropers

     4  atom types
     3  bond types
     1  angle types
     0  dihedral types
     0  improper types

  -54.1580913067 55.74722431 xlo xhi
  -54.9221135838 55.1341722397 ylo yhi
  -56.0324504375 53.5882513476 zlo zhi

Masses

1 1.0  # Heterochromatin
2 1.0  # rDNA
3 1.0  # Fibrillarin
4 1.0  # Pitchoune

Atoms  # full

1 1 1 0.000 -25.8563 0.5868639 -10.5686
2 2 1 0.000 -27.5015446545 0.215809558853 -9.71766156316
3 3 1 0.000 -28.1204913791 2.08225016602 -8.73053244224
4 4 1 0.000 -29.888279778 2.90796028203 -8.94777637864
5 5 1 0.000 -29.4736966997 5.70038481848 -9.0933590389
6 6 1 0.000 -29.3639376838 6.87821022202 -10.9593044604
7 7 1 0.000 -29.0762829883 7.71224249025 -13.049419952
8 8 1 0.000 -28.8673647265 7.61766263626 -14.7270918192
9 9 1 0.000 -27.6654553655 8.80557913091 -15.5276750775
10 10 1 0.000 -27.6059883888 10.5378070207 -15.3415114311
11 11 1 0.000 -25.9129211521 9.97978516052 -16.0968380838
12 12 1 0.000 -24.397339934 9.07911046205 -17.2214894389
13 13 1 0.000 -24.7723131113 9.94497414941 -15.7669751875
14 14 1 0.000 -22.9254968297 9.95149674167 -14.3526362436
15 15 1 0.000 -22.1836348835 11.6630087909 -14.8359662866
16 16 1 0.000 -20.5500492349 13.1239057306 -15.0834919892
17 17 1 0.000 -19.0221391439 13.172670197 -15.3657310331
18 18 1 0.000 -17.8059913591 12.7627164116 -13.3835368037
19 19 1 0.000 -16.5136512151 12.6164860486 -11.3587307831
20 20 1 0.000 -19.3662179518 14.0490488949 -11.2697684268
21 21 1 0.000 -20.919789759 13.9019056006 -10.0404159766
22 22 1 0.000 -20.30190015 12.1302644164 -10.4535245605
23 23 1 0.000 -19.9193423542 11.843840484 -12.179510231
24 24 1 0.000 -19.2768667867 11.4996656466 -14.4700845885
25 25 1 0.000 -19.5998551755 9.8996239784 -16.5305269727
26 26 1 0.000 -18.5888409841 8.17140034903 -15.7366807081
27 27 1 0.000 -17.1815028903 8.69915878388 -17.1935784278
28 28 1 0.000 -15.9143137714 7.32078838884 -18.2492926193
29 29 1 0.000 -14.5065479748 7.49813990799 -19.1554474547
30 30 1 0.000 -14.956680238 5.77406971997 -18.579410271
31 31 1 0.000 -14.8446124812 3.4535570447 -19.7672190519
32 32 1 0.000 -17.0657165917 1.6898609781 -19.7464225423
33 33 1 0.000 -16.6794260326 1.94964640864 -18.0361962696
34 34 1 0.000 -17.440260066 -0.10825670066 -16.4575046205
35 35 1 0.000 -19.2797157216 -0.403062888749 -16.0976758976
36 36 1 0.000 -17.8853172317 -1.8884840184 -15.7422280928
37 37 1 0.000 -16.7283657066 -3.52215818182 -15.1541691269
38 38 1 0.000 -14.4516622762 -4.02950219122 -13.963959616
39 39 1 0.000 -14.3058687669 -2.49227646765 -12.390149655
40 40 1 0.000 -14.9064265527 -0.671083842274 -12.2410940594
41 41 1 0.000 -16.4018250325 -1.90288474647 -10.7060937894
42 42 1 0.000 -17.7490613761 -2.56021309031 -11.954129983
43 43 1 0.000 -18.7626317732 -1.36171418542 -12.378809661
44 44 1 0.000 -19.5122915292 -1.25520448445 -14.7076525453
45 45 1 0.000 -20.1268381738 0.913919284158 -14.2948394939
46 46 1 0.000 -20.7305525653 2.58144056706 -15.542249505
47 47 1 0.000 -18.7382808081 3.00250471247 -16.0636958896
48 48 1 0.000 -16.4913367537 3.59757660066 -15.7598037604
49 49 1 0.000 -14.7469845785 3.57672323732 -13.7853334533
50 50 1 0.000 -14.2919140814 4.20546987499 -11.5591770377
51 51 1 0.000 -15.5746515252 5.07080540654 -12.9521957696
52 52 1 0.000 -17.3744997 4.0657880258 -11.6686270327
53 53 1 0.000 -16.936010241 4.89405351435 -14.3818326033
54 54 1 0.000 -18.7241576458 3.11327483448 -14.4134611061
55 55 1 0.000 -20.4280516652 2.79681684068 -12.0208686769
56 56 1 0.000 -21.0041113311 1.67562729373 -10.2521146315
57 57 1 0.000 -21.1244734473 1.59540743074 -13.2436462746
58 58 1 0.000 -22.776149625 1.73974675668 -14.5231531953
59 59 1 0.000 -23.5047179418 0.724034143384 -12.495779538
60 60 1 0.000 -24.629709601 0.912601483718 -11.1133861586
61 61 1 0.000 -23.9243225023 1.73149591059 -9.15395146115
62 62 1 0.000 -22.8082873487 1.00833568144 -6.87466925093
63 63 1 0.000 -21.6602136714 2.23913893089 -7.31425680868
64 64 1 0.000 -20.3061567957 2.18633970297 -7.82389849685
65 65 1 0.000 -20.2289680168 3.99832827283 -7.06161688469
66 66 1 0.000 -22.8985840384 4.43194233523 -6.15357413041
67 67 1 0.000 -23.9181290429 5.44509273927 -4.95421511551
68 68 1 0.000 -23.8020980598 3.07191181218 -4.9060969547
69 69 1 0.000 -21.8231688569 1.40057609361 -4.7768019662
70 70 1 0.000 -23.6784773177 0.184993565767 -4.28090627063
71 71 1 0.000 -25.9749041504 -0.875836685659 -4.4594530393
72 72 1 0.000 -26.5903931093 0.700742021012 -3.49035469747
73 73 1 0.000 -24.8968435644 -0.139283609451 -2.24508754275
74 74 1 0.000 -23.2778150115 -0.199169712864 -0.318047355346
75 75 1 0.000 -21.2066129613 -1.63160281528 0.0532458079708
76 76 1 0.000 -21.934389709 -1.78564826883 -1.12724933474
77 77 1 0.000 -23.8216668567 -2.83181966197 -2.11438779678
78 78 1 0.000 -26.0867532453 -1.75082891089 -3.13805127613
79 79 1 0.000 -25.8610943594 -2.84258589859 -5.49845025803
80 80 1 0.000 -24.6059385839 -1.71935547155 -6.36638421442
81 81 1 0.000 -23.4432669267 -1.01880799147 -8.85911554355
82 82 1 0.000 -20.8788177318 -2.28903518452 -9.53806958596
83 83 1 0.000 -19.392480278 -3.4676670167 -10.3744714571
84 84 1 0.000 -21.2971711271 -4.48769349635 -11.7682280428
85 85 1 0.000 -20.0930228923 -5.05486681368 -13.2928985599
86 86 1 0.000 -21.5164825483 -3.67160242224 -13.7647806981
87 87 1 0.000 -23.7563830183 -4.27264253325 -12.3531051805
88 88 1 0.000 -24.1252458746 -1.46063329433 -12.0019282928
89 89 1 0.000 -21.7253546755 -1.79772119912 -11.5469820682
90 90 1 0.000 -21.28430021 -0.97584300175 -13.2636077408
91 91 1 0.000 -21.7553969397 -1.84055132313 -15.8331109811
92 92 1 0.000 -22.8237936094 -3.37017309431 -16.1985383338
93 93 1 0.000 -22.0991757376 -3.17343043804 -17.5446786379
94 94 1 0.000 -21.9311820582 -1.18717665167 -18.1562065107
95 95 1 0.000 -20.6916319332 0.605375410351 -16.5405223122
96 96 1 0.000 -20.3544124912 -1.3710140214 -16.7331577358
97 97 1 0.000 -18.2938563456 -1.88879019202 -18.2163290129
98 98 1 0.000 -16.6477894789 -0.998477615722 -17.9906539554
99 99 1 0.000 -16.0465108911 -1.60390130913 -15.9541715472
100 100 1 0.000 -15.8811742574 -1.58807415842 -13.8192663366
101 101 1 0.000 -15.6899542654 -4.05112023402 -12.7526280428
102 102 1 0.000 -15.348720202 -4.93148474747 -13.9285585859
103 103 1 0.000 -15.1004055206 -5.94659189919 -13.9509084308
104 104 1 0.000 -13.2462908691 -6.90231233023 -15.8826771777
105 105 1 0.000 -11.3183965197 -6.5645709841 -15.8852173917
106 106 1 0.000 -9.39334516352 -4.91906410441 -14.7382581758
107 107 1 0.000 -9.37456368837 -4.08356705671 -14.0953167717
108 108 1 0.000 -10.8128184318 -3.78738327333 -12.3020243624
109 109 1 0.000 -9.57684952295 -5.09835477948 -10.8751261926
110 110 1 0.000 -10.8887068507 -6.53458723672 -11.4740394739
111 111 1 0.000 -11.7968061606 -6.62637323432 -9.62901779978
112 112 1 0.000 -11.9338484548 -7.31464519952 -10.9712053705
113 113 1 0.000 -13.5523538554 -8.27343139414 -11.6218077408
114 114 1 0.000 -14.3239364036 -9.94019239524 -13.0030817882
115 115 1 0.000 -12.9634364536 -11.2522825983 -14.1334687669
116 116 1 0.000 -12.1359016402 -11.6137681468 -15.4960827583
117 117 1 0.000 -11.7919177818 -10.7088892289 -17.0703836484
118 118 1 0.000 -11.9559313231 -11.2159580558 -19.0358137714
119 119 1 0.000 -10.4964219922 -10.2646067207 -18.5528219922
120 120 1 0.000 -8.25623132213 -10.710930313 -16.8803374537
121 121 1 0.000 -7.52352831083 -10.5912414341 -17.9348735674
122 122 1 0.000 -8.75818822882 -11.1962608361 -20.4028517052
123 123 1 0.000 -7.2951819852 -11.1496173317 -21.093980028
124 124 1 0.000 -7.65147338134 -9.47677114611 -21.7060536154
125 125 1 0.000 -7.77205080908 -10.736369827 -23.5642041404
126 126 1 0.000 -9.69126945695 -10.8751709971 -25.1509122312
127 127 1 0.000 -8.33422842484 -10.6883065707 -26.454520072
128 128 1 0.000 -8.76700524352 -8.28281579158 -25.1726652465
129 129 1 0.000 -9.76065948295 -5.82006759776 -25.6741836584
130 130 1 0.000 -10.4511070207 -3.38448018902 -27.4507738974
131 131 1 0.000 -11.021509551 -2.13488406441 -28.4251490949
132 132 1 0.000 -11.9458741874 -2.57361882288 -30.1008372437
133 133 1 0.000 -12.9876491749 -4.03090663366 -29.2125389439
134 134 1 0.000 -14.5013785079 -3.79682505951 -26.7333348935
135 135 1 0.000 -15.1865291529 -2.37455487749 -27.8210338534
136 136 1 0.000 -17.3972289829 -3.05234440144 -27.727350225
137 137 1 0.000 -20.1280708371 -3.46861716972 -27.1410445445
138 138 1 0.000 -22.2378135914 -4.37940625763 -26.9496231323
139 139 1 0.000 -23.6174314431 -3.43824644464 -25.7519817582
140 140 1 0.000 -24.6615853685 -3.38313022402 -26.4376834783
141 141 1 0.000 -24.1196768277 -1.52748032903 -25.6678794179
142 142 1 0.000 -23.5484631563 0.268741737684 -24.5315658266
143 143 1 0.000 -22.3414087409 -1.32723254525 -22.4995939394
144 144 1 0.000 -24.2361783278 -1.86103841584 -22.7842083608
145 145 1 0.000 -24.7747847885 -3.63923566157 -21.8724062106
146 146 1 0.000 -23.6960484248 -3.76356849985 -23.0390659466
147 147 1 0.000 -21.1808887789 -4.01842564956 -22.5063311231
148 148 1 0.000 -20.3771838284 -2.97044551755 -23.2486114911
149 149 1 0.000 -21.1368182818 -1.83743566857 -24.2498618662
150 150 1 0.000 -20.0456146315 -0.308607393043 -22.7341510151
151 151 1 0.000 -18.7721229223 0.837360669277 -23.193129913
152 152 1 0.000 -19.5012688369 1.14067286738 -24.8308469447
153 153 1 0.000 -18.9753814981 -0.839678572047 -26.2257188019
154 154 1 0.000 -18.2923916292 -1.73678437444 -24.641069847
155 155 1 0.000 -16.3966927393 -1.49105863586 -22.8330050605
156 156 1 0.000 -14.2302008901 0.0868535678668 -22.9896771977
157 157 1 0.000 -13.8264366937 1.40785740774 -25.1494968497
158 158 1 0.000 -14.1492009101 1.00764121629 -27.6400449445
159 159 1 0.000 -13.713940454 -0.350613984988 -27.7265524052
160 160 1 0.000 -11.9482836484 0.944831613411 -27.9112772877
161 161 1 0.000 -11.4340570857 2.74840481148 -29.4944889389
162 162 1 0.000 -12.4977245925 3.16336153115 -27.6860360236
163 163 1 0.000 -15.0654616562 2.21537743474 -26.4474312331
164 164 1 0.000 -16.8363190819 0.632724774387 -26.172789569
165 165 1 0.000 -14.734209631 0.674840410291 -25.6822279628
166 166 1 0.000 -13.378379868 -0.761608628053 -25.4940158416
167 167 1 0.000 -16.1048346535 -1.44504823682 -25.21620026
168 168 1 0.000 -16.0959294529 -0.681990135604 -27.3731055506
169 169 1 0.000 -15.4147194719 -0.28467290498 -29.3531928293
170 170 1 0.000 -16.5207149715 1.91232016602 -29.3526623162
171 171 1 0.000 -16.8266552655 2.7579550405 -27.10980039
172 172 1 0.000 -17.9394038704 1.75494962196 -25.3858119712
173 173 1 0.000 -17.349180258 3.54542846285 -24.6903659166
174 174 1 0.000 -15.5482548655 4.93685829183 -26.1299084108
175 175 1 0.000 -14.9886808281 7.2279679868 -25.5634153315
176 176 1 0.000 -14.8194646065 7.96904589659 -23.340920412
177 177 1 0.000 -14.1607217822 6.13509005501 -24.0102713971
178 178 1 0.000 -13.5235073807 4.78048741974 -21.4929593759
179 179 1 0.000 -12.0929675168 6.55408292129 -22.3991187519
180 180 1 0.000 -11.8891487149 7.82291263326 -24.2390654265
181 181 1 0.000 -12.9703223222 9.12597466247 -23.2401727273
182 182 1 0.000 -15.0364575958 9.43880248125 -23.5905089309
183 183 1 0.000 -15.2657544254 8.90688191019 -20.5369746575
184 184 1 0.000 -15.2151814281 9.88306584758 -18.3657060606
185 185 1 0.000 -15.1564488049 8.18408756476 -17.482560196
186 186 1 0.000 -14.8322407041 7.80278334433 -15.7611225523
187 187 1 0.000 -13.5365566157 6.53206181218 -14.3949677468
188 188 1 0.000 -11.6970762376 5.25377060506 -12.7794608361
189 189 1 0.000 -10.4203817682 2.9490390219 -13.277489589
190 190 1 0.000 -11.6301309631 3.31951684968 -15.5368666067
191 191 1 0.000 -10.682850105 4.92176473847 -17.1353535454
192 192 1 0.000 -8.88115857686 4.67475528753 -16.4093746475
193 193 1 0.000 -9.28548356436 6.32262390639 -14.5621721872
194 194 1 0.000 -11.8169676468 6.7969669667 -15.110639834
195 195 1 0.000 -11.752719982 5.74730691769 -15.7426420342
196 196 1 0.000 -12.5940466847 5.53012287429 -17.3993755176
197 197 1 0.000 -11.6094837184 5.23945769977 -19.3167647465
198 198 1 0.000 -10.0692070067 5.10124115712 -19.7795051905
199 199 1 0.000 -8.70859465347 6.41731039604 -18.1760673267
200 200 1 0.000 -7.66726774177 8.25421439244 -17.840870307
201 201 1 0.000 -5.6288170377 6.55962540654 -17.7715127913
202 202 1 0.000 -5.03126933093 8.50321534053 -18.9822510951
203 203 1 0.000 -4.45252080808 10.3516755556 -18.4981222222
204 204 1 0.000 -5.45314953995 9.77594576458 -21.2353586559
205 205 1 0.000 -5.58817069007 8.23110151515 -21.1643856286
206 206 1 0.000 -7.07466878288 9.12014521852 -21.169540154
207 207 1 0.000 -8.46065710871 10.6525385939 -19.669469537
208 208 1 0.000 -7.64740356436 11.4033990099 -21.3015154815
209 209 1 0.000 -7.74206581958 13.2915477348 -23.0323879488
210 210 1 0.000 -9.74691753575 14.4257190319 -24.1740347635
211 211 1 0.000 -9.18114906391 15.3270969697 -22.5402444044
212 212 1 0.000 -6.58497945695 14.2654980798 -22.9341225223
213 213 1 0.000 -5.83371781978 13.1142152615 -23.9609122612
214 214 1 0.000 -5.56271858686 12.148409511 -21.5293330933
215 215 1 0.000 -4.47620556856 12.8148892089 -20.1697836784
216 216 1 0.000 -2.67995524652 12.5069208421 -18.3834410141
217 217 1 0.000 -1.40453312331 13.5375462646 -19.1913141314
218 218 1 0.000 -1.27142872287 12.7540518052 -17.1222783778
219 219 1 0.000 -2.623590021 14.0436374437 -16.1032926193
220 220 1 0.000 -3.76827855386 11.731739934 -15.8471543954
221 221 1 0.000 -2.588139989 10.1494975798 -14.6270156216
222 222 1 0.000 -4.48024836984 9.2833049505 -13.9662769377
223 223 1 0.000 -5.88393778878 8.38875629463 -15.1296029703
224 224 1 0.000 -5.95669093609 10.7599323332 -15.6028252025
225 225 1 0.000 -4.80525715472 10.1247964796 -17.0764879588
226 226 1 0.000 -2.67481442844 10.7591610261 -16.663589559
227 227 1 0.000 -0.449771505751 11.7448155816 -17.4410625863
228 228 1 0.000 -1.00184646095 11.3172184218 -15.0121519852
229 229 1 0.000 -1.72792553555 12.6841547555 -13.0356671767
230 230 1 0.000 -3.46185294629 11.1299323532 -13.4774962396
231 231 1 0.000 -5.51970974197 9.38957511751 -12.3761323932
232 232 1 0.000 -6.4361790099 11.075509901 -14.433070297
233 233 1 0.000 -8.80278652165 10.2574365537 -14.2408275528
234 234 1 0.000 -9.89833341834 10.0183442144 -16.0407585159
235 235 1 0.000 -10.628490099 9.64394716472 -17.6309061206
236 236 1 0.000 -11.9075033803 7.520770008 -18.4918178618
237 237 1 0.000 -11.7252238024 7.40224944694 -20.5691568757
238 238 1 0.000 -11.4344934593 8.98643765377 -21.1766912391
239 239 1 0.000 -12.5425740674 9.71490294429 -20.2569967597
240 240 1 0.000 -12.9262056706 10.8669423142 -21.5231864786
241 241 1 0.000 -10.9947891089 11.015560186 -22.3593782478
242 242 1 0.000 -10.2540329883 10.3338721772 -23.1394965797
243 243 1 0.000 -10.9902958196 9.99860435644 -25.4392860286
244 244 1 0.000 -12.0129111611 12.3657135014 -25.8555619262
245 245 1 0.000 -10.569380098 13.2060937094 -25.593950265
246 246 1 0.000 -8.35775970297 12.367819592 -24.2876768177
247 247 1 0.000 -6.90559971497 12.6219781278 -26.6595909391
248 248 1 0.000 -8.29769264626 11.0055913891 -27.5123386439
249 249 1 0.000 -9.43347953495 11.443789599 -29.0440106311
250 250 1 0.000 -8.84069817282 11.2576171017 -31.3335082208
251 251 1 0.000 -7.40957172217 9.81382936794 -30.6053624862
252 252 1 0.000 -5.46470836884 9.15283742574 -29.1145214821
253 253 1 0.000 -5.81906630963 8.75338437444 -26.6046609361
254 254 1 0.000 -6.72923146315 7.02679991199 -25.0609437844
255 255 1 0.000 -4.23557140914 6.56417618362 -25.6429353335
256 256 1 0.000 -5.81696488149 5.43200678068 -27.7977093609
257 257 1 0.000 -4.87006514951 6.29347752775 -28.960509841
258 258 1 0.000 -5.39454790279 4.31345908391 -29.5038677668
259 259 1 0.000 -6.49654194119 3.44749265827 -29.5150250825
260 260 1 0.000 -8.73671974697 4.78172763076 -28.5312974597
261 261 1 0.000 -11.0649574257 4.97868843984 -29.4138067907
262 262 1 0.000 -11.2602152115 6.45889409541 -29.4814857786
263 263 1 0.000 -12.2676329733 5.711719994 -30.19010043
264 264 1 0.000 -13.5921893689 7.5075750105 -29.6404616862
265 265 1 0.000 -12.6033148515 8.52288917492 -30.8415607261
266 266 1 0.000 -10.7809188819 8.73905932693 -29.3737523952
267 267 1 0.000 -9.82770890489 9.98731026503 -27.5435757876
268 268 1 0.000 -9.28371551155 8.66054770477 -26.1730817282
269 269 1 0.000 -9.30378894189 9.38322656066 -23.9436367337
270 270 1 0.000 -8.47407478848 8.64271229123 -21.6620784078
271 271 1 0.000 -9.15057385239 10.5816451395 -21.9413771377
272 272 1 0.000 -9.55404948695 12.6150494849 -21.424579878
273 273 1 0.000 -8.70108790979 14.9733046605 -19.7068874387
274 274 1 0.000 -7.33877028503 13.8987179418 -19.6143349235
275 275 1 0.000 -6.10501134613 13.6484134513 -18.511489569
276 276 1 0.000 -5.58534113311 13.1237051705 -16.9535429043
277 277 1 0.000 -4.87376567657 14.5376017402 -15.9473263426
278 278 1 0.000 -7.20303747975 13.3835877588 -15.6790274327
279 279 1 0.000 -8.73704039604 12.0926470447 -14.65419953
280 280 1 0.000 -6.98626506751 12.1311661566 -13.1069170117
281 281 1 0.000 -7.48746870987 11.0808461846 -12.6482467747
282 282 1 0.000 -6.61104042904 11.2033178518 -10.3677341334
283 283 1 0.000 -7.5169580108 11.9539046205 -10.1031971257
284 284 1 0.000 -5.91388367637 13.1232482948 -9.06431786979
285 285 1 0.000 -5.37797322732 14.6446343034 -10.0932012261
286 286 1 0.000 -5.07009037204 16.6269983498 -8.93838274827
287 287 1 0.000 -6.41815888889 15.9980424642 -6.98948467547
288 288 1 0.000 -7.53002329733 17.1637163216 -7.88866263526
289 289 1 0.000 -8.56751450045 18.9707130513 -8.09552555356
290 290 1 0.000 -8.83074229923 19.4672909891 -5.82310977198
291 291 1 0.000 -7.41893420742 17.5826159116 -5.54364061106
292 292 1 0.000 -9.0026020282 15.8710306631 -6.32911827183
293 293 1 0.000 -10.7499623162 16.0146553855 -4.50906658466
294 294 1 0.000 -11.4364073807 14.2481971797 -2.87369858486
295 295 1 0.000 -12.8707831683 14.9382789679 -3.39173444644
296 296 1 0.000 -11.181250165 16.1035928793 -2.45940075608
297 297 1 0.000 -10.5573508131 18.0286064506 -3.84857373837
298 298 1 0.000 -9.03641851485 20.2265188119 -3.6146950495
299 299 1 0.000 -10.2732649465 21.7351251725 -5.13059872287
300 300 1 0.000 -8.53646355036 21.041810071 -7.05041660766
301 301 1 0.000 -7.48642243324 23.3288694869 -8.04073107111
302 302 1 0.000 -7.91768071607 23.7745786979 -9.77432930093
303 303 1 0.000 -9.20677537554 24.4536576258 -10.6224673967
304 304 1 0.000 -8.76334363636 25.7248151515 -13.0275545455
305 305 1 0.000 -7.23376991299 24.9909791879 -13.8259220222
306 306 1 0.000 -7.6874230153 23.6230560156 -13.0880968397
307 307 1 0.000 -8.29016751575 22.1213135914 -11.5876287129
308 308 1 0.000 -5.84237660966 23.3208825183 -11.2900723772
309 309 1 0.000 -5.47110586359 22.228680308 -13.4904589659
310 310 1 0.000 -3.81428771077 21.1557427843 -14.7359961296
311 311 1 0.000 -4.03489853285 20.0432292829 -16.3271846385
312 312 1 0.000 -6.05592534353 18.3285046605 -16.7067675668
313 313 1 0.000 -7.87777793879 16.8926119112 -17.1503594359
314 314 1 0.000 -8.33657386839 16.2418937194 -15.6151417342
315 315 1 0.000 -9.81252586059 15.4105878688 -15.5911285429
316 316 1 0.000 -12.1366123312 15.6417273627 -17.3656491449
317 317 1 0.000 -13.4700543154 14.5788034003 -16.5392007101
318 318 1 0.000 -14.744519942 16.1462413341 -15.052449755
319 319 1 0.000 -15.8290016202 16.1465884788 -13.5033809481
320 320 1 0.000 -15.6828962596 15.2466541254 -11.9057851485
321 321 1 0.000 -17.4657083108 16.0506978498 -11.5309747075
322 322 1 0.000 -18.9550944494 17.0225219022 -12.3939120612
323 323 1 0.000 -19.7751863486 17.87049984 -13.5148813781
324 324 1 0.000 -21.8855383138 18.4476324032 -15.049020432
325 325 1 0.000 -23.4826594959 16.7026339334 -14.9226675968
326 326 1 0.000 -21.5080812681 15.9208410541 -14.184429543
327 327 1 0.000 -20.8771145115 14.4311389239 -14.7301091309
328 328 1 0.000 -23.4525943894 14.1129050405 -14.4988965197
329 329 1 0.000 -24.8065149415 12.5772917892 -14.1067326333
330 330 1 0.000 -27.3884690969 11.8960311131 -13.3661710171
331 331 1 0.000 -27.9800594059 10.1163528053 -13.7380940594
332 332 1 0.000 -30.4087492949 10.6571137314 -13.9343040604
333 333 1 0.000 -31.1670779778 8.81736906191 -12.9799933793
334 334 1 0.000 -33.60840009 8.13670543654 -12.257119622
335 335 1 0.000 -34.8789553755 6.43502442244 -11.9781115212
336 336 1 0.000 -32.8746137514 6.43390056606 -13.5638405241
337 337 1 0.000 -34.5784657666 5.75026942694 -14.7736727273
338 338 1 0.000 -34.1511033203 5.74292650165 -16.5823923592
339 339 1 0.000 -33.708840034 5.51610427043 -18.6380134013
340 340 1 0.000 -32.0277107711 6.68335979298 -18.0108262826
341 341 1 0.000 -29.6431806581 7.20318634363 -19.1159321932
342 342 1 0.000 -28.2087544554 6.06106040704 -18.1509775578
343 343 1 0.000 -27.7413046805 5.17525736274 -19.6150485149
344 344 1 0.000 -26.0706478548 6.59185089109 -19.3770985799
345 345 1 0.000 -26.2254973097 9.06597847085 -18.9411716172
346 346 1 0.000 -24.8190642064 10.1115747615 -18.8809782778
347 347 1 0.000 -22.7194659466 11.8997662566 -19.0013672067
348 348 1 0.000 -22.3182630763 13.6100820182 -19.5560180218
349 349 1 0.000 -21.9406193819 15.1391691569 -20.4500628863
350 350 1 0.000 -20.7525556256 15.7306348735 -18.7406424242
351 351 1 0.000 -21.2797420842 13.3270542054 -19.4114410241
352 352 1 0.000 -19.804459766 14.084320342 -19.9474435644
353 353 1 0.000 -17.4410317932 12.5777381738 -20.4374594059
354 354 1 0.000 -17.0188177818 12.0149825283 -19.4027558956
355 355 1 0.000 -14.8931414341 11.1963707171 -18.0351446745
356 356 1 0.000 -16.0497069807 10.9358426243 -16.0552192019
357 357 1 0.000 -14.6276191819 12.6869445145 -15.45670031
358 358 1 0.000 -14.1303557756 11.7131615962 -14.197579568
359 359 1 0.000 -13.9291313231 10.1492137274 -15.0948367737
360 360 1 0.000 -12.871169627 8.5360410081 -17.2824912491
361 361 1 0.000 -13.6859415842 6.55185651665 -16.2995113411
362 362 1 0.000 -16.0132605161 4.95596953995 -17.323030423
363 363 1 0.000 -15.9070410441 3.33245661266 -17.1135327033
364 364 1 0.000 -13.6836983498 3.33014244224 -17.21830033
365 365 1 0.000 -14.2272723372 1.71494792779 -17.9545657666
366 366 1 0.000 -14.0083557056 0.524737810691 -18.0505766977
367 367 1 0.000 -11.5024256826 -0.226391153105 -16.8111537954
368 368 1 0.000 -11.1063211721 -1.05708084376 -14.7054390639
369 369 1 0.000 -11.8131785279 -2.94513206621 -13.6376577458
370 370 1 0.000 -12.1316107111 -1.34546228623 -11.7050207021
371 371 1 0.000 -9.99578918292 -0.491827125503 -12.9913908091
372 372 1 0.000 -8.90273921692 -2.34034507651 -12.0088065707
373 373 1 0.000 -7.09409018302 -2.43846516352 -12.3987264926
374 374 1 0.000 -7.25259384638 -0.473689650255 -11.4943820982
375 375 1 0.000 -7.51981640264 -2.79058917492 -11.0986088009
376 376 1 0.000 -6.43303071407 -4.29508649265 -9.4513059946
377 377 1 0.000 -7.95053278328 -3.85794689469 -7.33727810881
378 378 1 0.000 -6.92801161616 -4.95372910991 -6.06936146715
379 379 1 0.000 -6.52347617462 -3.29956154815 -6.84886791179
380 380 1 0.000 -5.37282880688 -3.1517890049 -6.57113347435
381 381 1 0.000 -4.75502387239 -1.31967574212 -5.36763590059
382 382 1 0.000 -4.93870214821 0.63879140015 -6.43443128413
383 383 1 0.000 -5.83289481348 -0.693447720262 -6.71206960396
384 384 1 0.000 -5.10998254225 -1.13505965297 -8.73680860586
385 385 1 0.000 -6.08044090009 -2.95657270627 -9.2040130393
386 386 1 0.000 -7.75207286029 -2.21984984598 -7.96368420242
387 387 1 0.000 -7.94516688769 -0.970804070667 -9.1555549865
388 388 1 0.000 -9.91902540054 -0.417134480738 -7.87162655266
389 389 1 0.000 -10.6481470947 0.145310845916 -9.69651223022
390 390 1 0.000 -10.8933361336 0.462092290839 -12.0825460246
391 391 1 0.000 -11.8272230723 0.594315166607 -14.2781461146
392 392 1 0.000 -11.0981668767 1.54539540354 -16.222280388
393 393 1 0.000 -9.69289362236 2.08152544654 -17.6578333633
394 394 1 0.000 -8.83593031203 2.81992052805 -15.7902405641
395 395 1 0.000 -6.55377130113 3.69727216222 -15.3644373037
396 396 1 0.000 -6.73274448045 3.71793673767 -17.1165017302
397 397 1 0.000 -6.28016613861 3.79691891089 -18.8722059406
398 398 1 0.000 -5.39684071307 3.67163891189 -20.008729803
399 399 1 0.000 -5.1166889639 2.99477686269 -21.8384965497
400 400 1 0.000 -3.80078513051 3.72232660966 -22.486090309
401 401 1 0.000 -3.430410011 5.76892461146 -24.3589816082
402 402 1 0.000 -3.03658929093 8.40361788779 -23.2807992499
403 403 1 0.000 -3.49940180618 9.3136579868 -25.2304163216
404 404 1 0.000 -1.76088805581 10.4089543374 -24.9674143514
405 405 1 0.000 -1.23348721212 11.0311282828 -26.3938454545
406 406 1 0.000 -1.83124684968 12.1132785779 -27.3362093609
407 407 1 0.000 -2.38184330633 10.8075118212 -28.6896940694
408 408 1 0.000 -2.91682177118 8.21571832783 -29.2558906491
409 409 1 0.000 -2.4357989559 7.37994835884 -27.2951418542
410 410 1 0.000 -3.61089651465 5.24133925493 -28.5720009501
411 411 1 0.000 -4.91730687269 3.43516181518 -27.5437683968
412 412 1 0.000 -5.0297060366 3.14972917792 -26.6149941194
413 413 1 0.000 -6.98531658266 2.73190623162 -26.2215669467
414 414 1 0.000 -8.21402346435 3.55812522352 -26.8575349935
415 415 1 0.000 -10.3392320432 3.58396765977 -27.3551491449
416 416 1 0.000 -11.5020358836 3.24087780778 -25.7686958196
417 417 1 0.000 -10.5217142764 2.07537306231 -24.2466886789
418 418 1 0.000 -8.78475867387 2.4352979778 -22.8159114011
419 419 1 0.000 -7.08362141914 1.76483905391 -21.7191751375
420 420 1 0.000 -7.24022586259 -0.289595822572 -22.8345376038
421 421 1 0.000 -6.30502381938 -0.38282649694 -21.8703621362
422 422 1 0.000 -8.02272305731 -1.96600063806 -20.6987494849
423 423 1 0.000 -10.2423661096 -2.49239710471 -21.3072134213
424 424 1 0.000 -10.6933856886 -0.849942027552 -22.2505620162
425 425 1 0.000 -12.2523758176 -0.783610674457 -21.5259967597
426 426 1 0.000 -14.0121030603 0.564631929023 -20.7564261326
427 427 1 0.000 -12.4051114911 1.35955871287 -20.0199555356
428 428 1 0.000 -11.1034633463 2.43569708771 -20.3355463046
429 429 1 0.000 -12.8032615862 2.09889042204 -21.4138480848
430 430 1 0.000 -13.3326181518 3.51796963696 -22.454510231
431 431 1 0.000 -12.0390628663 4.00206324332 -22.7620543754
432 432 1 0.000 -10.1581582428 3.81373848185 -22.7620022802
433 433 1 0.000 -8.72789132313 4.98357251125 -21.2673809181
434 434 1 0.000 -6.93882923592 5.70224826683 -20.3885086809
435 435 1 0.000 -4.85480105111 5.59976427843 -20.3583755676
436 436 1 0.000 -4.67012361236 5.96601557156 -22.4190919892
437 437 1 0.000 -7.18803234223 6.79366371737 -23.8123163316
438 438 1 0.000 -7.93797791279 5.32137819182 -24.5219555756
439 439 1 0.000 -5.75530911491 4.16818021602 -24.2820331833
440 440 1 0.000 -6.34427538754 2.63634248225 -23.0883714871
441 441 1 0.000 -3.77515106711 2.47342244224 -23.7914860286
442 442 1 0.000 -1.57593927093 3.68113056706 -22.7932914491
443 443 1 0.000 -0.773849446645 3.9414969927 -21.3895067007
444 444 1 0.000 -0.356020456947 1.55371192519 -19.7943380238
445 445 1 0.000 -0.209531909091 0.714540951764 -18.3968515152
446 446 1 0.000 1.97335882688 0.198382764033 -19.2018787979
447 447 1 0.000 0.943395273427 1.62895713671 -21.5186694169
448 448 1 0.000 -1.4109770465 2.16702274227 -23.2921106211
449 449 1 0.000 -1.95607948995 2.2472009711 -20.7717589759
450 450 1 0.000 -0.799268355235 0.020311040114 -20.9958809981
451 451 1 0.000 -0.602096223222 -2.2134290369 -19.1314964896
452 452 1 0.000 -1.87572287129 -1.88099020902 -17.295860176
453 453 1 0.000 -1.61189936194 -1.29770113626 -19.5166877588
454 454 1 0.000 -2.48868443744 1.16081788995 -20.2640647165
455 455 1 0.000 -3.15864406741 1.51896565157 -21.7399476148
456 456 1 0.000 -5.10492266627 0.10121421128 -22.9873878488
457 457 1 0.000 -6.28991460246 1.10645333627 -24.7546013501
458 458 1 0.000 -5.36027370837 -0.0583423635264 -24.6981365537
459 459 1 0.000 -4.58339439044 -1.29070450745 -26.9803958696
460 460 1 0.000 -4.71814369937 0.0498992416201 -26.9616835284
461 461 1 0.000 -6.43234768977 0.171161681078 -27.1788727773
462 462 1 0.000 -7.29352675868 1.15300753475 -25.0522692669
463 463 1 0.000 -7.70774339934 -0.979289037294 -25.3334155116
464 464 1 0.000 -7.97586048905 -3.27924555556 -25.0403837484
465 465 1 0.000 -7.54143182718 -1.9453180168 -24.0250851385
466 466 1 0.000 -8.61260666967 -2.35747521452 -22.2234588359
467 467 1 0.000 -9.63145119512 -4.89605968697 -22.0491085409
468 468 1 0.000 -10.519990269 -5.86407737574 -21.1652953695
469 469 1 0.000 -9.04333663366 -6.00883113411 -21.9760946895
470 470 1 0.000 -7.25964374037 -6.56471393539 -20.3512344734
471 471 1 0.000 -7.23902931493 -6.98267406241 -19.0854584258
472 472 1 0.000 -7.81986558056 -7.48665676868 -17.4979039004
473 473 1 0.000 -9.52620679468 -7.69117625063 -18.9237389139
474 474 1 0.000 -10.296620242 -8.09389132013 -20.8404947195
475 475 1 0.000 -11.2951129913 -9.24646538254 -21.7615366637
476 476 1 0.000 -13.2402689169 -8.20137127413 -22.2424229323
477 477 1 0.000 -13.2897065007 -7.32597762776 -23.0754615562
478 478 1 0.000 -13.3660057606 -7.65549566157 -24.4948653465
479 479 1 0.000 -11.3067392339 -6.18968971797 -23.8429783678
480 480 1 0.000 -11.8159487249 -6.49555845885 -20.8554388739
481 481 1 0.000 -11.2614639964 -6.34938212121 -18.1413207021
482 482 1 0.000 -10.0866578078 -3.92799123612 -18.6423275428
483 483 1 0.000 -11.1849542954 -1.35481791079 -18.078939674
484 484 1 0.000 -12.6676084308 -1.55295738074 -18.7952194419
485 485 1 0.000 -13.0933123212 -3.13608876788 -17.6151089109
486 486 1 0.000 -12.5042955296 -2.08376333633 -16.3034442544
487 487 1 0.000 -10.4340918092 -2.01085042304 -16.7547740774
488 488 1 0.000 -9.71093593559 0.501763130623 -17.5556488549
489 489 1 0.000 -8.213060028 0.393847282088 -19.8835608361
490 490 1 0.000 -6.11528993699 1.05215899496 -20.5930422442
491 491 1 0.000 -5.16166273827 1.94811867987 -18.2613964696
492 492 1 0.000 -7.39601007601 1.1174206492 -17.1905354935
493 493 1 0.000 -6.37417875188 0.1431569015 -16.7563119412
494 494 1 0.000 -7.20768116412 0.562959631073 -15.0203479248
495 495 1 0.000 -8.13808188219 -1.98344788579 -15.0792210321